# vtk DataFile Version 2.0
LoResButterfly
ASCII
DATASET UNSTRUCTURED_GRID
POINTS 322 float
0.0 10.0 0.0
1.1 9.5 0.0
1.3 8.9 0.0
1.1 8.6 0.0
1.0 8.0 0.0
1.3 7.5 0.0
1.3 7.1 0.0
1.5 6.8 0.0
1.6 6.3 0.0
1.9 6.1 0.0
3.6 5.5 0.0
2.2 4.5 0.0
1.8 1.4 0.0
3.1 1.1 0.0
3.6 1.3 0.0
3.7 2.1 0.0
4.1 2.8 0.0
4.6 3.1 0.0
5.0 1.9 0.0
4.8 5.2 0.0
4.6 6.0 0.0
4.8 6.2 0.0
1.0 2.9 0.0
4.7 6.5 0.0
5.0 6.6 0.0
5.3 6.5 0.0
4.2 8.4 0.0
5.7 8.4 0.0
4.1 8.3 0.0
5.8 8.3 0.0
5.2 6.2 0.0
5.4 6.0 0.0
5.2 5.2 0.0
5.4 3.1 0.0
5.9 2.8 0.0
6.4 2.0 0.0
6.5 1.2 0.0
7.0 1.0 0.0
8.2 1.3 0.0
8.9 2.9 0.0
7.8 4.4 0.0
6.4 5.5 0.0
8.2 6.1 0.0
8.5 6.3 0.0
8.6 6.8 0.0
8.8 7.1 0.0
8.8 7.5 0.0
9.1 8.0 0.0
9.0 8.5 0.0
8.8 8.8 0.0
9.0 9.5 0.0
10.0 10.0 0.0
1.8 10.0 0.0
2.5 9.2 0.0
3.8 7.9 0.0
8.2 10.0 0.0
7.5 9.2 0.0
6.1 7.9 0.0
0.5499999999987794 9.750000000000554 0.0
2.466666666665429 5.900000000000436 0.0
3.033333333331808 5.700000000000538 0.0
3.133333333334463 5.166666666667473 0.0
2.666666666667681 4.833333333334058 0.0
1.800000000001369 3.966666666668492 0.0
1.40000000000124 3.433333333334986 0.0
1.266666666666498 2.400000000000316 0.0
1.533333333333168 1.900000000000311 0.0
2.449999999998845 1.250000000000266 0.0
4.799999999999245 2.500000000002264 0.0
5.199999999999194 2.49999999999758 0.0
4.666666666666476 3.799999999998005 0.0
4.733333333333082 4.49999999999736 0.0
5.266666666666486 4.500000000001897 0.0
5.333333333333099 3.80000000000247 0.0
4.699999999999867 5.600000000000531 0.0
5.300000000000725 5.600000000002898 0.0
4.466666666666075 7.800000000001331 0.0
4.733333333332695 7.200000000001437 0.0
4.700000000000928 7.166666666664914 0.0
4.400000000001375 7.733333333330735 0.0
5.233333333332322 7.199999999997399 0.0
5.466666666665001 7.799999999995718 0.0
5.533333333333479 7.733333333333643 0.0
5.266666666666938 7.166666666667243 0.0
0.59999999999852 10.0 0.0
1.199999999998432 10.0 0.0
2.149999999998469 9.60000000000175 0.0
2.933333333331498 8.766666666668502 0.0
3.36666666666512 8.33333333333488 0.0
4.066666666666276 7.266666666667595 0.0
4.333333333333386 6.633333333333208 0.0
5.633333333332898 6.633333333332151 0.0
5.866666666666392 7.266666666665921 0.0
6.566666666665434 8.333333333332188 0.0
7.033333333331133 8.766666666664623 0.0
7.849999999999484 9.59999999999941 0.0
8.799999999998729 10.0 0.0
9.399999999999883 10.0 0.0
9.5 9.75 0.0
7.600000000001526 5.900000000000508 0.0
7.00000000000137 5.700000000000457 0.0
6.866666666665326 5.133333333334387 0.0
7.333333333332151 4.766666666667597 0.0
8.166666666663032 3.900000000004957 0.0
8.533333333330877 3.400000000003351 0.0
8.666666666667282 2.366666666668074 0.0
8.433333333333916 1.833333333334668 0.0
7.600000000001174 1.150000000000293 0.0
6.150000000000312 2.399999999999501 0.0
1.471894349191204 8.551776443495587 0.0
3.184789619719816 7.784805422872425 0.0
2.321897397938034 6.392598183048626 0.0
2.731618408775848 4.276713488955361 0.0
1.848739198644016 2.373078197883372 0.0
3.403345244084154 2.750751098281599 0.0
1.629330030716848 7.299999999999997 0.0
1.646385430224071 7.699229949047909 0.0
1.990957995800884 7.484788332697086 0.0
2.001365369787493 7.904889451487986 0.0
3.693586597706536 3.299097173837666 0.0
3.760152846868088 6.71184870242091 0.0
1.67278030125083 8.883209215528785 0.0
3.655341801261346 4.929188144901975 0.0
3.118778007312674 3.290392241919156 0.0
1.977804448849752 7.063669438392973 0.0
2.404139363978122 7.249688079194742 0.0
1.964190194863297 3.380740137713946 0.0
2.777245219351053 2.775931384017897 0.0
4.454486826611253 5.351057821815487 0.0
2.333195975479577 8.56742000203029 0.0
3.400646233864915 3.817178036558987 0.0
4.00561049856039 6.115171925444361 0.0
2.768679648182684 1.761002774681102 0.0
1.885883722244818 6.633165579504603 0.0
4.188548923051683 4.153913789343023 0.0
2.761967131696747 8.224177999821995 0.0
1.647788149354076 8.148980973289026 0.0
1.846383249582394 8.533517157523 0.0
2.853075247820199 6.290301268390465 0.0
2.163624384928657 1.844935778831435 0.0
1.56923767549249 9.277335252990383 0.0
2.657063683344985 6.792780210935404 0.0
2.661333940553345 7.732614149051365 0.0
2.933962709007903 7.277768906460381 0.0
3.404246249091696 6.187766574921217 0.0
3.17628545877201 4.615551201931107 0.0
1.554687372376589 2.880277709712162 0.0
0.8999999999984765 9.810000000000516 0.0
4.220812134555748 5.635584508170932 0.0
4.116952944826298 4.710069645599212 0.0
1.948183100966783 9.216550244651575 0.0
3.068659576847647 2.250802645428326 0.0
3.486479568371963 7.291727875282057 0.0
2.355608892084983 3.870586008692764 0.0
2.88733494465427 3.792940336500509 0.0
2.435559281075825 2.327890561721622 0.0
4.212375102463225 3.49009126008186 0.0
2.336591455527602 8.055197811478932 0.0
2.535087187010478 3.32329139547828 0.0
3.179870674718109 6.773149960269158 0.0
1.314837344197014 8.24314597713823 0.0
1.381802184755032 7.918271379895033 0.0
2.147443522856261 2.836493281234152 0.0
2.249357723271142 6.826380298215269 0.0
1.498355273888242 9.700291397778585 0.0
4.055609961530144 5.204045237192146 0.0
3.649657421469584 4.313260047638503 0.0
2.278877625129489 7.685435564782022 0.0
4.432076613260156 4.99303454092084 0.0
1.997910203693331 8.826848160799914 0.0
2.033064839946228 8.242001079161849 0.0
3.143738693108475 4.16543249631779 0.0
3.847146548621154 3.808232448753439 0.0
1.793155210069197 9.558835379084456 0.0
1.691848292669764 7.017102765677306 0.0
3.247467845006066 1.702361084021885 0.0
6.628506145261778 2.407587879287416 0.0
8.630996105234388 8.470751001428889 0.0
7.73932738635833 6.421623500433697 0.0
7.240691921718753 4.225764160247405 0.0
7.160095707562723 8.168255442134758 0.0
7.991368966082679 3.359049271335909 0.0
8.47954646525266 7.273420331511557 0.0
8.453351764006593 7.699662698208352 0.0
8.1037078872348 7.476932246707947 0.0
8.424090975774842 8.784794167037948 0.0
8.264638022274404 8.393791601022977 0.0
8.088119784649479 2.30207259421749 0.0
5.790741033106334 4.222509458441135 0.0
6.88979922232485 2.007225336539698 0.0
6.298599209667485 6.760151053994194 0.0
7.123664909043729 2.451534135046598 0.0
6.787956202225286 2.90132667952661 0.0
8.128405753019369 7.051028757707645 0.0
7.712363279150384 7.258071676611806 0.0
5.596410161514139 5.313397459623005 0.0
5.884990434499731 3.341650724166218 0.0
6.419058678312551 3.761863232567516 0.0
7.416413910654555 2.032656884029906 0.0
7.620042654619759 8.62178449326605 0.0
7.628715193912843 8.048508153155122 0.0
5.975177248396329 6.18482714990553 0.0
6.367471386273714 4.939803300601064 0.0
8.169088389499498 6.57608638169678 0.0
7.335878578591684 2.909714512397257 0.0
7.064587205670225 3.330997060899031 0.0
8.531298472223146 9.23462758434194 0.0
7.186746888350126 6.271672697835185 0.0
8.012499282721201 9.104688127618433 0.0
6.544964361726555 6.123015061164633 0.0
6.333623912869665 3.150072720313176 0.0
6.722862644172054 7.743698305206865 0.0
7.195966858466095 1.567252096209617 0.0
8.32145311798316 2.835405927549873 0.0
6.827841211064354 4.574129672941511 0.0
7.257568227395296 7.589285498699996 0.0
6.884816731770724 7.15034041838823 0.0
7.357416760930607 6.816879647404626 0.0
8.510555779961935 8.084297597845028 0.0
5.773351273211603 5.735407305620622 0.0
7.871033082765845 1.739401786590073 0.0
7.631324435488342 3.831274650342082 0.0
7.553558285057109 2.519280495810821 0.0
8.25032170226463 9.518488002902227 0.0
8.084762375489563 7.962366526398018 0.0
5.841108876172849 4.809314706203966 0.0
6.79715321615819 1.554895486549863 0.0
6.809514572032605 6.628625049748282 0.0
6.792203656746165 4.130721982236194 0.0
6.37458905045533 7.364171288851041 0.0
8.047575281856027 8.68224858961927 0.0
8.740408885459376 7.898317534543811 0.0
7.746747744750854 7.652727591907658 0.0
7.803714242346103 2.900424353362855 0.0
8.796392154131139 8.190673226763545 0.0
6.023148070808404 5.352044922811362 0.0
7.821320313791637 6.82473799277091 0.0
6.28809046228556 4.315858661936346 0.0
6.688821041888556 3.387364719872179 0.0
6.364381470530299 2.724324813152279 0.0
7.487792023532536 3.351933751643754 0.0
7.061646873449229 3.735134592865232 0.0
5.965465826533049 3.814835968194125 0.0
7.303041249811752 7.203644310276164 0.0
7.929146705630519 8.341739872692287 0.0
6.160546727678128 5.814346764819518 0.0
5.491203941642953 4.986225647504366 0.0
8.58532024103502 9.651337741763841 0.0
5.00000000000003 5.922624058830383 0.0
5.0 4.827777777778735 0.0
5.000000000000712 2.901128526872215 0.0
5.000000000000125 5.504524811766762 0.0
5.000000000003003 4.12142857143106 0.0
5.000000000000001 3.415079365078359 0.0
1.471894349191204 8.551776443495587 0.0
3.184789619719816 7.784805422872425 0.0
2.321897397938034 6.392598183048626 0.0
2.731618408775848 4.276713488955361 0.0
1.848739198644016 2.373078197883372 0.0
3.403345244084154 2.750751098281599 0.0
1.629330030716848 7.299999999999997 0.0
1.646385430224071 7.699229949047909 0.0
1.990957995800884 7.484788332697086 0.0
2.001365369787493 7.904889451487986 0.0
3.693586597706536 3.299097173837666 0.0
3.760152846868088 6.71184870242091 0.0
1.67278030125083 8.883209215528785 0.0
3.655341801261346 4.929188144901975 0.0
3.118778007312674 3.290392241919156 0.0
1.977804448849752 7.063669438392973 0.0
2.404139363978122 7.249688079194742 0.0
1.964190194863297 3.380740137713946 0.0
2.777245219351053 2.775931384017897 0.0
4.454486826611253 5.351057821815487 0.0
2.333195975479577 8.56742000203029 0.0
3.400646233864915 3.817178036558987 0.0
4.00561049856039 6.115171925444361 0.0
2.768679648182684 1.761002774681102 0.0
1.885883722244818 6.633165579504603 0.0
4.188548923051683 4.153913789343023 0.0
2.761967131696747 8.224177999821995 0.0
1.647788149354076 8.148980973289026 0.0
1.846383249582394 8.533517157523 0.0
2.853075247820199 6.290301268390465 0.0
2.163624384928657 1.844935778831435 0.0
1.56923767549249 9.277335252990383 0.0
2.657063683344985 6.792780210935404 0.0
2.661333940553345 7.732614149051365 0.0
2.933962709007903 7.277768906460381 0.0
3.404246249091696 6.187766574921217 0.0
3.17628545877201 4.615551201931107 0.0
1.554687372376589 2.880277709712162 0.0
0.8999999999984765 9.810000000000516 0.0
4.220812134555748 5.635584508170932 0.0
4.116952944826298 4.710069645599212 0.0
1.948183100966783 9.216550244651575 0.0
3.068659576847647 2.250802645428326 0.0
3.486479568371963 7.291727875282057 0.0
2.355608892084983 3.870586008692764 0.0
2.88733494465427 3.792940336500509 0.0
2.435559281075825 2.327890561721622 0.0
4.212375102463225 3.49009126008186 0.0
2.336591455527602 8.055197811478932 0.0
2.535087187010478 3.32329139547828 0.0
3.179870674718109 6.773149960269158 0.0
1.314837344197014 8.24314597713823 0.0
1.381802184755032 7.918271379895033 0.0
2.147443522856261 2.836493281234152 0.0
2.249357723271142 6.826380298215269 0.0
1.498355273888242 9.700291397778585 0.0
4.055609961530144 5.204045237192146 0.0
3.649657421469584 4.313260047638503 0.0
2.278877625129489 7.685435564782022 0.0
4.432076613260156 4.99303454092084 0.0
1.997910203693331 8.826848160799914 0.0
2.033064839946228 8.242001079161849 0.0
3.143738693108475 4.16543249631779 0.0
3.847146548621154 3.808232448753439 0.0
1.793155210069197 9.558835379084456 0.0
1.691848292669764 7.017102765677306 0.0
3.247467845006066 1.702361084021885 0.0
5.0 6.37551020408163 0.0
CELLS 581 2324
3 1 2 140
3 131 10 148
3 7 8 133
3 3 4 160
3 8 9 133
3 9 111 133
3 148 10 165
3 71 19 168
3 15 16 114
3 132 151 155
3 53 150 169
3 10 131 144
3 139 132 155
3 129 53 169
3 110 88 135
3 114 16 119
3 14 15 175
3 9 59 111
3 138 144 159
3 110 135 142
3 20 90 131
3 142 125 143
3 140 121 150
3 66 12 139
3 125 141 143
3 129 137 170
3 87 53 129
3 109 136 137
3 113 66 139
3 142 157 167
3 127 158 162
3 142 135 157
3 112 11 153
3 11 63 153
3 4 5 161
3 60 10 144
3 128 165 168
3 87 129 135
3 144 120 159
3 54 88 110
3 141 125 163
3 54 110 152
3 16 17 156
3 157 129 170
3 2 121 140
3 70 71 134
3 114 119 123
3 88 87 135
3 131 120 144
3 119 16 156
3 12 67 139
3 90 89 120
3 13 14 175
3 63 64 126
3 114 123 127
3 52 85 164
3 90 120 131
3 123 119 130
3 126 64 146
3 111 138 141
3 5 6 115
3 138 60 144
3 89 54 152
3 116 118 136
3 62 11 112
3 67 13 132
3 70 134 156
3 136 109 160
3 20 131 148
3 156 134 172
3 59 60 138
3 7 133 174
3 140 150 173
3 61 62 145
3 166 130 172
3 110 142 143
3 62 112 145
3 165 149 168
3 149 122 166
3 133 124 174
3 151 127 155
3 128 148 165
3 134 71 149
3 10 61 122
3 125 124 163
3 64 22 146
3 15 114 151
3 5 115 116
3 141 138 159
3 2 3 109
3 84 58 147
3 122 61 145
3 65 66 113
3 116 115 117
3 135 129 157
3 114 127 151
3 117 115 124
3 6 7 174
3 130 166 171
3 17 70 156
3 155 127 162
3 158 126 162
3 22 65 146
3 126 146 162
3 134 149 166
3 157 118 167
3 19 74 128
3 132 13 175
3 137 129 169
3 116 117 118
3 63 126 153
3 53 86 150
3 120 89 152
3 127 123 158
3 113 139 155
3 111 59 138
3 2 109 121
3 117 124 125
3 67 132 139
3 123 130 154
3 110 143 152
3 115 6 174
3 125 142 167
3 152 143 159
3 111 141 163
3 121 109 137
3 122 149 165
3 133 111 163
3 65 113 146
3 124 133 163
3 1 85 147
3 74 20 148
3 5 116 161
3 85 1 164
3 120 152 159
3 112 153 154
3 86 52 173
3 134 166 172
3 116 136 161
3 143 141 159
3 109 3 160
3 137 136 170
3 1 140 164
3 117 125 167
3 130 119 172
3 128 74 148
3 153 126 158
3 149 71 168
3 150 121 169
3 154 153 158
3 10 122 165
3 124 115 174
3 146 113 162
3 123 154 158
3 122 145 166
3 145 112 171
3 166 145 171
3 136 118 170
3 113 155 162
3 118 117 167
3 52 164 173
3 150 86 173
3 15 151 175
3 151 132 175
3 112 154 171
3 154 130 171
3 136 160 161
3 118 157 170
3 119 156 172
3 19 128 168
3 121 137 169
3 164 140 173
3 160 4 161
3 58 1 147
3 85 84 147
3 58 84 0
3 182 44 193
3 212 198 220
3 44 43 203
3 107 212 220
3 45 44 182
3 43 42 203
3 47 46 231
3 206 185 208
3 196 197 210
3 187 198 222
3 193 44 203
3 198 187 220
3 199 56 208
3 31 91 201
3 72 32 246
3 42 178 203
3 186 218 224
3 215 200 232
3 180 200 215
3 210 197 238
3 199 208 230
3 180 199 200
3 42 99 178
3 201 190 209
3 186 224 244
3 212 37 226
3 37 36 226
3 33 73 196
3 206 208 223
3 100 41 209
3 49 185 206
3 94 56 199
3 180 94 199
3 225 195 235
3 238 197 241
3 107 37 212
3 31 201 219
3 38 107 220
3 225 202 237
3 93 180 211
3 197 196 242
3 197 228 241
3 34 33 196
3 207 100 209
3 91 190 201
3 209 41 245
3 181 104 213
3 93 94 180
3 75 31 219
3 213 187 233
3 200 199 244
3 196 73 242
3 56 95 208
3 202 225 235
3 34 196 210
3 73 72 188
3 216 217 227
3 103 104 181
3 48 47 234
3 211 180 215
3 57 93 211
3 187 222 233
3 179 40 221
3 102 40 179
3 55 96 247
3 91 92 190
3 188 225 237
3 104 39 213
3 105 106 187
3 102 179 214
3 40 103 221
3 46 45 182
3 208 95 223
3 105 187 213
3 99 100 207
3 187 106 220
3 101 102 214
3 208 185 230
3 39 105 213
3 191 176 192
3 202 101 214
3 195 225 246
3 195 75 219
3 41 101 202
3 35 108 176
3 216 190 229
3 189 198 212
3 224 200 244
3 201 209 245
3 190 216 227
3 237 197 242
3 192 210 238
3 211 215 216
3 106 38 220
3 191 192 204
3 204 192 205
3 178 207 217
3 57 211 229
3 46 182 183
3 218 183 224
3 49 48 177
3 186 177 218
3 189 176 191
3 189 191 198
3 217 207 227
3 92 57 229
3 103 181 221
3 35 176 189
3 217 216 243
3 221 240 241
3 181 213 233
3 32 75 195
3 194 215 232
3 198 191 222
3 73 188 242
3 184 182 193
3 183 182 184
3 223 55 247
3 178 99 207
3 49 177 185
3 210 192 239
3 205 192 238
3 217 194 236
3 205 238 241
3 34 210 239
3 185 177 186
3 191 204 222
3 108 34 239
3 188 72 225
3 184 193 194
3 35 189 226
3 192 176 239
3 207 209 227
3 41 202 235
3 202 214 237
3 209 190 227
3 188 237 242
3 240 205 241
3 190 92 229
3 95 55 223
3 194 193 236
3 189 212 226
3 214 179 228
3 215 194 243
3 183 184 224
3 183 218 231
3 218 177 234
3 179 221 241
3 216 215 243
3 211 216 229
3 46 183 231
3 178 217 236
3 96 50 247
3 194 217 243
3 228 197 237
3 193 203 236
3 176 108 239
3 177 48 234
3 224 184 232
3 195 219 235
3 184 194 232
3 221 181 240
3 185 186 230
3 203 178 236
3 204 205 240
3 233 204 240
3 231 218 234
3 199 230 244
3 222 204 233
3 50 206 247
3 200 224 232
3 181 233 240
3 206 223 247
3 225 72 246
3 230 186 244
3 32 195 246
3 214 228 237
3 235 219 245
3 228 179 241
3 219 201 245
3 41 235 245
3 47 231 234
3 36 35 226
3 50 49 206
3 97 50 96
3 98 50 97
3 51 98 97
3 78 77 24
3 79 76 77
3 78 79 77
3 76 28 26
3 28 76 79
3 18 69 68
3 30 21 248
3 21 20 248
3 31 30 248
3 75 248 251
3 248 74 251
3 69 33 250
3 17 68 250
3 73 72 252
3 71 70 252
3 32 19 249
3 33 73 253
3 70 17 253
3 71 72 249
3 32 75 251
3 74 19 251
3 68 69 250
3 70 73 252
3 19 32 251
3 73 70 253
3 72 71 252
3 17 250 253
3 250 33 253
3 19 71 249
3 72 32 249
3 20 74 248
3 75 31 248
3 80 24 83
3 29 27 81
3 81 80 82
3 82 80 83
3 82 29 81
3 1 2 285
3 276 10 293
3 7 8 278
3 3 4 305
3 8 9 278
3 9 256 278
3 293 10 310
3 71 19 313
3 15 16 259
3 277 296 300
3 53 295 314
3 10 276 289
3 284 277 300
3 274 53 314
3 255 88 280
3 259 16 264
3 14 15 320
3 9 59 256
3 283 289 304
3 255 280 287
3 20 90 276
3 287 270 288
3 285 266 295
3 66 12 284
3 270 286 288
3 274 282 315
3 87 53 274
3 254 281 282
3 258 66 284
3 287 302 312
3 272 303 307
3 287 280 302
3 257 11 298
3 11 63 298
3 4 5 306
3 60 10 289
3 273 310 313
3 87 274 280
3 289 265 304
3 54 88 255
3 286 270 308
3 54 255 297
3 16 17 301
3 302 274 315
3 2 266 285
3 70 71 279
3 259 264 268
3 88 87 280
3 276 265 289
3 264 16 301
3 12 67 284
3 90 89 265
3 13 14 320
3 63 64 271
3 259 268 272
3 52 85 309
3 90 265 276
3 268 264 275
3 271 64 291
3 256 283 286
3 5 6 260
3 283 60 289
3 89 54 297
3 261 263 281
3 62 11 257
3 67 13 277
3 70 279 301
3 281 254 305
3 20 276 293
3 301 279 317
3 59 60 283
3 7 278 319
3 285 295 318
3 61 62 290
3 311 275 317
3 255 287 288
3 62 257 290
3 310 294 313
3 294 267 311
3 278 269 319
3 296 272 300
3 273 293 310
3 279 71 294
3 10 61 267
3 270 269 308
3 64 22 291
3 15 259 296
3 5 260 261
3 286 283 304
3 2 3 254
3 84 58 292
3 267 61 290
3 65 66 258
3 261 260 262
3 280 274 302
3 259 272 296
3 262 260 269
3 6 7 319
3 275 311 316
3 17 70 301
3 300 272 307
3 303 271 307
3 22 65 291
3 271 291 307
3 279 294 311
3 302 263 312
3 19 74 273
3 277 13 320
3 282 274 314
3 261 262 263
3 63 271 298
3 53 86 295
3 265 89 297
3 272 268 303
3 258 284 300
3 256 59 283
3 2 254 266
3 262 269 270
3 67 277 284
3 268 275 299
3 255 288 297
3 260 6 319
3 270 287 312
3 297 288 304
3 256 286 308
3 266 254 282
3 267 294 310
3 278 256 308
3 65 258 291
3 269 278 308
3 1 85 292
3 74 20 293
3 5 261 306
3 85 1 309
3 265 297 304
3 257 298 299
3 86 52 318
3 279 311 317
3 261 281 306
3 288 286 304
3 254 3 305
3 282 281 315
3 1 285 309
3 262 270 312
3 275 264 317
3 273 74 293
3 298 271 303
3 294 71 313
3 295 266 314
3 299 298 303
3 10 267 310
3 269 260 319
3 291 258 307
3 268 299 303
3 267 290 311
3 290 257 316
3 311 290 316
3 281 263 315
3 258 300 307
3 263 262 312
3 52 309 318
3 295 86 318
3 15 296 320
3 296 277 320
3 257 299 316
3 299 275 316
3 281 305 306
3 263 302 315
3 264 301 317
3 19 273 313
3 266 282 314
3 309 285 318
3 305 4 306
3 58 1 292
3 85 84 292
3 58 84 0
3 30 21 321
3 24 25 321
3 23 24 321
3 25 30 321
3 21 23 321
CELL_TYPES 581
5
5
5
5
5
5
5
5
5
5
5
5
5
5
5
5
5
5
5
5
5
5
5
5
5
5
5
5
5
5
5
5
5
5
5
5
5
5
5
5
5
5
5
5
5
5
5
5
5
5
5
5
5
5
5
5
5
5
5
5
5
5
5
5
5
5
5
5
5
5
5
5
5
5
5
5
5
5
5
5
5
5
5
5
5
5
5
5
5
5
5
5
5
5
5
5
5
5
5
5
5
5
5
5
5
5
5
5
5
5
5
5
5
5
5
5
5
5
5
5
5
5
5
5
5
5
5
5
5
5
5
5
5
5
5
5
5
5
5
5
5
5
5
5
5
5
5
5
5
5
5
5
5
5
5
5
5
5
5
5
5
5
5
5
5
5
5
5
5
5
5
5
5
5
5
5
5
5
5
5
5
5
5
5
5
5
5
5
5
5
5
5
5
5
5
5
5
5
5
5
5
5
5
5
5
5
5
5
5
5
5
5
5
5
5
5
5
5
5
5
5
5
5
5
5
5
5
5
5
5
5
5
5
5
5
5
5
5
5
5
5
5
5
5
5
5
5
5
5
5
5
5
5
5
5
5
5
5
5
5
5
5
5
5
5
5
5
5
5
5
5
5
5
5
5
5
5
5
5
5
5
5
5
5
5
5
5
5
5
5
5
5
5
5
5
5
5
5
5
5
5
5
5
5
5
5
5
5
5
5
5
5
5
5
5
5
5
5
5
5
5
5
5
5
5
5
5
5
5
5
5
5
5
5
5
5
5
5
5
5
5
5
5
5
5
5
5
5
5
5
5
5
5
5
5
5
5
5
5
5
5
5
5
5
5
5
5
5
5
5
5
5
5
5
5
5
5
5
5
5
5
5
5
5
5
5
5
5
5
5
5
5
5
5
5
5
5
5
5
5
5
5
5
5
5
5
5
5
5
5
5
5
5
5
5
5
5
5
5
5
5
5
5
5
5
5
5
5
5
5
5
5
5
5
5
5
5
5
5
5
5
5
5
5
5
5
5
5
5
5
5
5
5
5
5
5
5
5
5
5
5
5
5
5
5
5
5
5
5
5
5
5
5
5
5
5
5
5
5
5
5
5
5
5
5
5
5
5
5
5
5
5
5
5
5
5
5
5
5
5
5
5
5
5
5
5
5
5
5
5
5
5
5
5
5
5
5
5
5
5
5
5
5
5
5
5
5
5
5
5
5
5
5
5
5
5
5
5
5
5
5
5
5
5
5
5
5
5
5
5
5
5
5
5
5
5
5
5
5
5
5
5
5
5
5
5
5
5
5
5
5
5
5
5
5
5
5
5
5
5
5
POINT_DATA 322
SCALARS point_scalars float
LOOKUP_TABLE default
100.0
152.45005737381368
194.28105395788376
212.37410757631275
228.18720943939056
243.79136416455142
254.57056892079734
262.8721929592006
272.01477245288936
277.1616652713038
353.51623778392235
317.2634856316113
100.0
229.45819458488356
237.91625249197506
261.70467465766785
299.39787480294314
266.8623603372718
0.0
439.83767730561885
352.3022431569606
512.1673468198679
248.77004148887576
244.539991488382
0.0
135.08640486088024
-0.0
0.0
-0.0
0.0
142.54242545770862
-7.050468083018327
541.3476736521966
-340.56833308366305
149.57866273967852
207.2448284223294
196.53035702450632
191.2480524763655
100.0
233.8243173293686
315.112094465006
259.69648112929394
173.97538046726018
173.11558825976655
171.89447146718607
171.11525956081041
170.4057462658991
169.78876443049109
169.53166281374507
169.30335132699602
169.12941944494207
169.12552943577106
100.0
203.72955841297153
272.91088037357645
169.08953081641377
168.79892488421422
163.85494080036307
136.49139357255066
291.3492637253379
314.6427377480824
357.95455258497356
338.84294921371173
291.31778686600126
265.1700706851669
234.25427291646568
196.4194916033104
202.23240797670076
23.3518719117411
23.23714979511482
438.8384311364653
552.5961215638266
1048.1568294053002
807.8219464973017
342.6027566039365
-201.196400750628
-0.0
-0.0
-0.0
-0.0
0.0
0.0
0.0
0.0
136.68164334581815
145.2973934888413
169.8976579815597
232.42356465179108
254.9782622247115
293.7544885991951
320.68023110552076
134.00561288314938
157.22073109773126
166.57737218618195
168.10032579992276
169.0243292344735
169.1188970581447
169.1251084480412
169.1256171415481
177.89851631069087
192.35705225235952
357.7341252848937
347.01877322197527
281.1553788878426
251.26423413438678
217.27936819639766
182.2638991623501
172.8749970666305
204.7401114482245
211.78368413292236
264.8480455762047
281.29825075111734
327.23507634249995
229.2083201051288
284.7519663646891
252.3589228999516
241.7380997112102
251.93756103441223
239.9661876157172
321.2180740890617
307.0350523832138
197.38423031039153
375.47452229423646
302.7025449103373
262.36500846039326
264.42706590350247
275.28322943817795
269.50954834623667
390.03669433245955
223.32647649790246
338.08340124711293
335.4487922276569
226.8993605426676
269.97776850802404
417.5781785137
244.10263841437916
227.915910082165
215.6109073454733
296.25536437963177
196.17715860136
172.76375089387668
280.2971511326764
256.1200840856286
273.5474697567725
315.72635478583675
352.17250201018373
250.81421447853802
143.4356546113827
362.5863141660856
416.42966884445934
184.27593753902946
254.8229320344854
283.72733387569474
302.5830085537708
316.5421775829306
238.2528014259788
347.65238768877606
240.69132338060817
287.0307470248201
292.3027784275253
222.55720837849685
232.88286973430758
257.06939266683287
271.76815915766065
144.3647839266641
386.1642127973739
372.1255339051449
250.6957438327874
433.9483744149073
205.28978278224398
229.36756867168359
339.79697386433054
360.67954008259034
156.45687640138559
259.93287731041386
241.1517493036063
215.62864091223156
169.45316277076242
174.48059177779783
333.2748129246704
167.85026889152786
261.5727788260481
170.88647271011925
170.14208261699002
170.35497510165828
169.22888101808294
169.3374061332896
209.4101281109153
626.4400530078005
206.9303378673856
158.80999675571144
222.56062859296117
243.01407072554107
171.469013310537
170.47800457805306
293.55630165970996
206.52801894912176
363.23089381756535
202.07281723075886
168.71515902625708
168.87952993737798
141.44500412559105
383.6146006777915
172.89342113525532
247.0872287281089
278.73006003340527
169.15543633746248
177.72777453538797
169.02050443422272
180.8667176696351
239.79174726551565
165.95696503408448
192.4863152313798
234.38386823232867
369.4301501399546
168.4730611513283
167.51452664918705
171.97121262006993
169.70459635904848
131.20941294083346
174.45875083854042
295.4437796205709
224.61781816301817
169.08259131426047
169.5711797239761
518.4162122958475
198.49766069609186
170.7340671501819
362.08648999668424
162.5737917171751
169.07413324542162
169.940789425631
169.58743498042386
242.11590304552604
169.68334544596266
292.3194583930003
172.28938627070946
450.18674798355784
289.41744113692346
213.11561348998578
271.94866076786843
311.8975154776876
449.7203169332131
169.64999259877854
169.1092557900665
192.3400545005137
568.9985351717759
169.11457918750207
220.07562781771915
655.3189818310178
28.53720105900086
232.45857495291142
704.6269531055611
292.2789034496937
211.78368413292242
264.8480455762049
281.2982507511176
327.2350763424998
229.20832010512888
284.75196636468894
252.35892289995172
241.73809971121037
251.9375610344125
239.96618761571762
321.2180740890616
307.0350523832139
197.38423031039153
375.47452229423686
302.70254491033745
262.3650084603936
264.42706590350275
275.28322943817824
269.50954834623656
390.0366943324597
223.32647649790258
338.08340124711316
335.4487922276565
226.89936054266747
269.9777685080243
417.5781785137003
244.1026384143794
227.91591008216525
215.6109073454735
296.2553643796319
196.17715860136005
172.76375089387653
280.29715113267673
256.1200840856288
273.5474697567726
315.7263547858367
352.1725020101839
250.8142144785382
143.43565461138266
362.5863141660857
416.42966884445997
184.27593753902948
254.82293203448512
283.72733387569485
302.583008553771
316.5421775829312
238.25280142597876
347.6523876887762
240.69132338060854
287.0307470248202
292.30277842752525
222.55720837849705
232.88286973430766
257.0693926668331
271.7681591576611
144.36478392666416
386.16421279737426
372.1255339051455
250.6957438327879
433.94837441490745
205.28978278224406
229.36756867168393
339.7969738643308
360.67954008259045
156.45687640138567
259.93287731041414
241.15174930360618
204.531383946653
