# vtk DataFile Version 2.0
triangle
ASCII
DATASET UNSTRUCTURED_GRID
POINTS 73 float
2.0 5.0 0.0
3.0 4.0 0.0
2.0 7.0 0.0
3.5 7.0 0.0
2.5 9.0 0.0
4.5 9.0 0.0
4.0 13.0 0.0
6.0 2.0 0.0
7.0 2.5 0.0
5.0 3.0 0.0
6.0 3.0 0.0
4.0 5.0 0.0
5.5 4.5 0.0
5.0 7.0 0.0
6.5 7.0 0.0
7.0 11.0 0.0
8.0 15.0 0.0
8.0 2.0 0.0
9.5 2.0 0.0
9.0 2.5 0.0
7.0 3.0 0.0
8.0 4.0 0.0
7.0 5.0 0.0
8.0 6.0 0.0
10.0 9.0 0.0
9.5 12.0 0.0
12.0 12.0 0.0
12.5 3.0 0.0
14.0 3.0 0.0
12.0 4.0 0.0
13.0 4.0 0.0
12.5 6.5 0.0
13.5 5.0 0.0
13.0 9.0 0.0
14.0 7.0 0.0
14.0 12.0 0.0
13.0 15.0 0.0
16.0 3.0 0.0
17.5 3.5 0.0
15.5 4.0 0.0
16.5 4.0 0.0
15.0 5.0 0.0
16.0 5.0 0.0
15.5 6.0 0.0
17.0 10.0 0.0
19.0 11.5 0.0
15.0 16.0 0.0
17.0 15.0 0.0
19.5 14.0 0.0
22.0 15.0 0.0
16.5 17.0 0.0
18.0 17.0 0.0
19.0 15.5 0.0
20.0 15.5 0.0
21.0 17.0 0.0
22.5 17.0 0.0
16.5 19.0 0.0
17.5 18.0 0.0
19.0 17.5 0.0
19.5 17.5 0.0
20.0 17.5 0.0
21.5 18.0 0.0
22.5 19.0 0.0
16.0 21.0 0.0
18.0 19.0 0.0
18.0 18.0 0.0
21.0 18.0 0.0
21.0 19.0 0.0
23.0 21.0 0.0
18.0 20.5 0.0
18.5 19.5 0.0
20.5 19.5 0.0
21.0 20.5 0.0
CELLS 90 360
3 1 3 0
3 2 0 3
3 2 3 4
3 5 4 3
3 6 4 5
3 7 10 9
3 12 9 10
3 11 9 12
3 14 11 12
3 13 11 14
3 5 13 14
3 15 5 14
3 6 5 15
3 16 6 15
3 18 19 17
3 21 17 19
3 20 17 21
3 22 20 21
3 23 22 21
3 14 22 23
3 24 14 23
3 15 14 24
3 25 15 24
3 16 15 25
3 26 25 24
3 16 25 26
3 33 26 24
3 36 16 26
3 35 26 33
3 36 26 35
3 28 30 27
3 29 27 30
3 32 29 30
3 31 29 32
3 34 31 32
3 33 31 34
3 44 33 34
3 35 33 44
3 46 36 35
3 38 40 37
3 39 37 40
3 42 39 40
3 41 39 42
3 43 41 42
3 34 41 43
3 44 34 43
3 45 35 44
3 47 35 45
3 46 35 47
3 49 48 45
3 47 45 48
3 50 46 47
3 52 47 48
3 53 52 48
3 49 53 48
3 50 47 51
3 52 51 47
3 58 51 52
3 59 52 53
3 60 53 54
3 49 54 53
3 55 54 49
3 50 51 57
3 58 57 51
3 60 54 61
3 55 61 54
3 56 50 57
3 58 65 57
3 66 60 61
3 56 57 64
3 65 64 57
3 58 64 65
3 70 64 58
3 59 70 58
3 71 70 59
3 60 71 59
3 67 71 60
3 66 67 60
3 61 67 66
3 62 67 61
3 55 62 61
3 56 64 63
3 69 63 64
3 70 69 64
3 71 67 72
3 68 72 67
3 62 68 67
3 8 10 7
3 58 52 59
3 53 60 59
CELL_TYPES 90
5
5
5
5
5
5
5
5
5
5
5
5
5
5
5
5
5
5
5
5
5
5
5
5
5
5
5
5
5
5
5
5
5
5
5
5
5
5
5
5
5
5
5
5
5
5
5
5
5
5
5
5
5
5
5
5
5
5
5
5
5
5
5
5
5
5
5
5
5
5
5
5
5
5
5
5
5
5
5
5
5
5
5
5
5
5
5
5
5
5
POINT_DATA 73
SCALARS point_scalars float
LOOKUP_TABLE default
0.0
-2.212397890863193
24.275401803687437
27.654973635789915
43.79064534870619
51.32289569901259
58.60532986226778
56.74110695189367
56.74110695189367
56.74110695189367
56.74110695189367
56.47455809777166
56.74110695189372
56.51332884018948
57.87999751041534
61.3770608468818
66.51051996769458
59.107377052109406
59.10737705210941
59.10737705210942
59.107377052109406
59.107377052109406
59.10737705210938
59.22427034179449
66.70544088164338
68.12257490096046
74.45726727505323
77.48302866407624
77.48302866407624
77.48302866407624
77.48302866407624
77.47378928540964
77.4830286640762
76.3743032240939
77.53846493607524
79.08066584022072
79.09631515697869
77.83523066577519
77.83518920646675
77.83535504370045
77.83518920646675
77.83755238704693
77.83456731684038
77.82341476287425
81.83949505130228
87.59435927584337
86.69808713004927
89.94068598050313
92.11555096403467
96.30068215431236
94.67129319262452
97.27770928680732
94.41429461050656
95.36635631331137
98.72603526563424
98.9255411358879
72.50988139303132
100.0
100.0
99.43669078990123
100.0
100.0
72.50988139303134
0.0
88.14723313432049
100.0
100.0
88.1472331343205
0.0
60.708056146088964
84.83054297453585
84.83054297453586
60.70805614608897

