# vtk DataFile Version 2.0
HiResSquare
ASCII
DATASET UNSTRUCTURED_GRID
POINTS 142 float
0.0 0.0 0.0
0.0 1.0 0.0
1.0 1.0 0.0
1.0 0.0 0.0
0.0 0.8999999999995836 0.0
0.0 0.7999999999999998 0.0
0.0 0.7000000000006934 0.0
0.0 0.6000000000013869 0.0
0.0 0.5000000000020587 0.0
0.0 0.4000000000016644 0.0
0.0 0.3000000000012483 0.0
0.0 0.2000000000008322 0.0
0.0 0.100000000000416 0.0
0.8999999999995836 0.0 0.0
0.7999999999999998 0.0 0.0
0.7000000000006934 0.0 0.0
0.6000000000013869 0.0 0.0
0.5000000000020587 0.0 0.0
0.4000000000016644 0.0 0.0
0.3000000000012483 0.0 0.0
0.2000000000008322 0.0 0.0
0.100000000000416 0.0 0.0
0.09999999999981467 1.0 0.0
0.1999999999995579 1.0 0.0
0.2999999999992664 1.0 0.0
0.3999999999989749 1.0 0.0
0.4999999999986943 1.0 0.0
0.5999999999989468 1.0 0.0
0.69999999999921 1.0 0.0
0.7999999999994734 1.0 0.0
0.8999999999997368 1.0 0.0
1.0 0.09999999999981467 0.0
1.0 0.1999999999995579 0.0
1.0 0.2999999999992664 0.0
1.0 0.3999999999989749 0.0
1.0 0.4999999999986943 0.0
1.0 0.5999999999989468 0.0
1.0 0.69999999999921 0.0
1.0 0.7999999999994734 0.0
1.0 0.8999999999997368 0.0
0.08660254037832765 0.4500000000016029 0.0
0.9133974596215683 0.5499999999988205 0.0
0.5394257192644041 0.09236792741237876 0.0
0.4531597093704187 0.9152217186779357 0.0
0.3490798000997635 0.0888543020730402 0.0
0.6499999999990785 0.9133974596213328 0.0
0.08660254037804396 0.6500000000008673 0.0
0.9166917272976033 0.3499999999991166 0.0
0.7500000000003465 0.0866025403778432 0.0
0.2413274345283801 0.9103703875045546 0.0
0.08613067098692952 0.2508173017626784 0.0
0.9204077431032824 0.7459788032316494 0.0
0.08467720450513819 0.8495762630717836 0.0
0.9153227954946419 0.150423736927753 0.0
0.1591825619065009 0.09056972474493846 0.0
0.8494067683002897 0.9170502595849763 0.0
0.08652389547986095 0.3501362169618977 0.0
0.1731919732734976 0.4000227028285932 0.0
0.1732028961758391 0.5000037838058788 0.0
0.2598050724571614 0.4500044144403422 0.0
0.259806832257983 0.5500013663750427 0.0
0.3464096052533864 0.5000009634703539 0.0
0.3460375899341685 0.3996660322686302 0.0
0.4325867632863064 0.4492890262153245 0.0
0.4329416194130738 0.5498816649485334 0.0
0.5195324054214969 0.4998617818619389 0.0
0.5195895890475513 0.599957241135983 0.0
0.5191666957287995 0.3992029949386928 0.0
0.6061292187487465 0.4498441294682906 0.0
0.6055738768607708 0.3508014145116534 0.0
0.4329965792737392 0.6499731510147035 0.0
0.5163390725836854 0.7044542185662399 0.0
0.6056674788287837 0.6507352432847181 0.0
0.5192180217580762 0.2989417123136636 0.0
0.6912723994601127 0.4025772271405684 0.0
0.6928203230247775 0.3000000000029874 0.0
0.6925475751141571 0.5004035594361451 0.0
0.7764189843983154 0.4510810620419149 0.0
0.429869676359937 0.7516124797968526 0.0
0.3458836368208658 0.700264271802328 0.0
0.601274532909812 0.7535358109398411 0.0
0.6928203230245242 0.7000000000014349 0.0
0.3464101615115934 0.80000000000038 0.0
0.2613945494712827 0.7471434102060877 0.0
0.7794228634025839 0.5500000000020889 0.0
0.6952463901839145 0.8109810542587105 0.0
0.7784372413923608 0.7487737367129537 0.0
0.1731111437948534 0.3001627035934513 0.0
0.1703018238314725 0.19940892344584 0.0
0.2589421166480755 0.2499286045087005 0.0
0.2568398517536252 0.1494939110585876 0.0
0.3465136387860953 0.1967429917990793 0.0
0.4403108432731382 0.1475064708411631 0.0
0.4352414774236361 0.2461396475434093 0.0
0.5261164787589633 0.2006125504571061 0.0
0.6196113524655218 0.1629581819773908 0.0
0.4327441461010944 0.3488732355472809 0.0
0.1732045851800048 0.6000008583640468 0.0
0.9133974596213852 0.6499999999991771 0.0
0.7491088597469077 0.9132469817448767 0.0
0.9152489067617452 0.4499999999989929 0.0
0.5505266182274422 0.9157740970141033 0.0
0.5100182665254928 0.8167956118739936 0.0
0.08660209368536922 0.5500007736959734 0.0
0.9142673935466085 0.2500706228207302 0.0
0.8212553894617447 0.1915266798111612 0.0
0.834971220788279 0.3016944550569146 0.0
0.3471016110694765 0.8994183955994841 0.0
0.08628165106579266 0.7499293771790119 0.0
0.6060477650308582 0.5501336591981292 0.0
0.3463076490255336 0.6000202362685905 0.0
0.2599670555852421 0.6495716905027864 0.0
0.1734425770726928 0.699440889375484 0.0
0.1816975632942587 0.8150407418203329 0.0
0.6926548114672915 0.6002120769873858 0.0
0.7794228634028422 0.6500000000017985 0.0
0.2592170374305561 0.3499640762739471 0.0
0.346449334387271 0.2985524313235078 0.0
0.852228850699922 0.08362633964556326 0.0
0.7059135603706654 0.1896406895421303 0.0
0.149128146243429 0.916753706425554 0.0
0.08212753751762913 0.1530678781042669 0.0
0.9061456560226508 0.844093389860555 0.0
0.6115422688731291 0.2504924248008219 0.0
0.6506486287016152 0.07975333773188065 0.0
0.7999999999994796 0.8380531170042408 0.0
0.600721000800077 0.8406928938274947 0.0
0.7669751790171679 0.3521951742059353 0.0
0.253020442752394 0.06578358757531326 0.0
0.8464101615132961 0.5999999999988761 0.0
0.8464101615134301 0.4999999999989009 0.0
0.8464101615130922 0.699999999999221 0.0
0.8446347623720949 0.4004226778312606 0.0
0.2698557158495096 0.8325961894325085 0.0
0.4500000000018615 0.06525626353273427 0.0
0.4173118849673836 0.8366096411897292 0.0
0.7598076211330351 0.2578183009942944 0.0
0.07320508075681692 0.9267949192430218 0.0
0.9267949192432166 0.07320508075662222 0.0
0.07320508075719231 0.07320508075719231 0.0
0.9267949192429197 0.9267949192429197 0.0
0.8502801604061733 0.775379809361724 0.0
CELLS 242 968
3 71 80 102
3 119 75 123
3 113 49 120
3 105 48 118
3 48 105 119
3 49 113 133
3 95 119 123
3 45 85 99
3 48 119 124
3 92 42 94
3 88 54 90
3 119 95 124
3 102 80 126
3 99 85 125
3 78 71 102
3 42 92 134
3 90 54 128
3 90 44 91
3 91 44 92
3 85 45 126
3 94 42 95
3 52 113 120
3 53 105 118
3 82 107 133
3 54 88 121
3 122 55 125
3 85 86 125
3 67 63 96
3 91 93 117
3 107 82 135
3 73 93 94
3 107 49 133
3 93 96 117
3 63 62 96
3 73 67 96
3 91 92 93
3 122 125 141
3 44 90 128
3 75 119 136
3 73 94 123
3 93 92 94
3 93 73 96
3 40 56 57
3 40 9 56
3 8 9 40
3 97 46 103
3 46 97 112
3 87 50 88
3 46 7 103
3 26 43 101
3 97 111 112
3 27 26 101
3 8 40 103
3 41 36 98
3 35 36 41
3 40 57 58
3 111 83 112
3 28 45 99
3 7 8 103
3 56 50 87
3 101 43 102
3 40 58 103
3 47 34 100
3 35 41 100
3 10 50 56
3 19 18 44
3 9 10 56
3 58 97 103
3 21 20 54
3 10 11 50
3 45 27 101
3 34 35 100
3 37 51 98
3 55 29 99
3 28 27 45
3 30 29 55
3 37 38 51
3 87 88 89
3 79 83 111
3 36 37 98
3 4 5 52
3 33 47 104
3 70 79 110
3 24 49 107
3 53 104 105
3 29 28 99
3 89 90 91
3 104 47 106
3 31 32 53
3 53 32 104
3 70 78 79
3 58 57 59
3 5 6 108
3 24 23 49
3 43 25 107
3 79 82 83
3 52 5 108
3 105 104 106
3 69 67 73
3 89 88 90
3 32 33 104
3 26 25 43
3 25 24 107
3 6 46 108
3 68 67 69
3 33 34 47
3 74 69 75
3 79 78 82
3 65 63 67
3 70 71 78
3 65 67 68
3 68 69 74
3 58 60 97
3 110 79 111
3 64 66 70
3 17 16 42
3 58 59 60
3 114 84 115
3 6 7 46
3 76 74 77
3 60 59 61
3 15 14 48
3 81 114 115
3 61 63 64
3 57 56 87
3 76 77 84
3 64 63 65
3 70 66 71
3 68 74 76
3 108 46 112
3 64 65 66
3 64 70 110
3 60 61 110
3 97 60 111
3 65 68 109
3 61 59 62
3 61 64 110
3 61 62 63
3 66 65 109
3 108 112 113
3 71 66 72
3 71 72 80
3 72 66 109
3 80 72 81
3 80 81 85
3 68 76 109
3 85 81 86
3 60 110 111
3 112 83 113
3 52 108 113
3 109 76 114
3 81 72 114
3 76 84 114
3 72 109 114
3 86 81 115
3 59 57 116
3 87 89 116
3 62 59 116
3 57 87 116
3 94 95 123
3 96 62 117
3 89 91 117
3 62 116 117
3 95 42 124
3 116 89 117
3 88 50 121
3 14 13 118
3 23 22 120
3 11 12 121
3 38 39 122
3 75 69 123
3 127 75 136
3 42 16 124
3 15 48 124
3 92 44 134
3 101 102 126
3 80 85 126
3 48 14 118
3 49 23 120
3 50 11 121
3 51 38 122
3 74 75 127
3 69 73 123
3 54 20 128
3 19 44 128
3 106 47 132
3 113 83 133
3 44 18 134
3 17 42 134
3 43 107 135
3 1 4 137
3 13 3 138
3 22 1 137
3 12 0 139
3 0 21 139
3 2 30 140
3 39 2 140
3 3 31 138
3 16 15 124
3 106 127 136
3 55 99 125
3 119 105 136
3 45 101 126
3 78 102 135
3 127 106 132
3 77 74 127
3 82 78 135
3 105 106 136
3 130 77 132
3 129 84 130
3 115 129 131
3 84 77 130
3 115 84 129
3 86 115 131
3 20 19 128
3 41 98 129
3 129 98 131
3 41 129 130
3 100 41 130
3 98 51 131
3 100 130 132
3 47 100 132
3 83 82 133
3 18 17 134
3 102 43 135
3 51 122 141
3 121 12 139
3 122 39 140
3 120 22 137
3 118 13 138
3 21 54 139
3 30 55 140
3 31 53 138
3 4 52 137
3 54 121 139
3 52 120 137
3 53 118 138
3 55 122 140
3 77 127 132
3 125 86 141
3 86 131 141
3 131 51 141
CELL_TYPES 242
5
5
5
5
5
5
5
5
5
5
5
5
5
5
5
5
5
5
5
5
5
5
5
5
5
5
5
5
5
5
5
5
5
5
5
5
5
5
5
5
5
5
5
5
5
5
5
5
5
5
5
5
5
5
5
5
5
5
5
5
5
5
5
5
5
5
5
5
5
5
5
5
5
5
5
5
5
5
5
5
5
5
5
5
5
5
5
5
5
5
5
5
5
5
5
5
5
5
5
5
5
5
5
5
5
5
5
5
5
5
5
5
5
5
5
5
5
5
5
5
5
5
5
5
5
5
5
5
5
5
5
5
5
5
5
5
5
5
5
5
5
5
5
5
5
5
5
5
5
5
5
5
5
5
5
5
5
5
5
5
5
5
5
5
5
5
5
5
5
5
5
5
5
5
5
5
5
5
5
5
5
5
5
5
5
5
5
5
5
5
5
5
5
5
5
5
5
5
5
5
5
5
5
5
5
5
5
5
5
5
5
5
5
5
5
5
5
5
5
5
5
5
5
5
5
5
5
5
5
5
5
5
5
5
5
5
5
5
5
5
5
5
POINT_DATA 142
SCALARS point_scalars float
LOOKUP_TABLE default
0.0
47.67096156773103
52.33138444155019
100.0
47.5594284262352
47.19034869944372
46.54490383261784
45.545508094357366
44.0734740840379
41.9358274233728
38.78659793518707
33.89525231049271
25.070662686609
74.67831551531455
65.17950660393855
59.144384763297445
54.342918816159376
50.0084693709294
45.66958898259024
40.888358660368304
34.785208016765594
25.317502618336935
47.78019544079926
48.11712167187111
48.636116638018336
49.28398263093282
50.00089619522231
50.71955398483968
51.36854639358637
51.88477481908977
52.2218925682599
74.91452952805824
66.1214858680838
61.22648917638095
58.06384934244741
55.923507503550525
54.452018242497466
53.44970220005197
52.80754226105202
52.444621314258455
43.39803246641152
54.91563757463546
51.609858810989564
49.645870954129684
43.60593290509958
51.0944023509511
46.245609027362676
59.05482597768468
61.284937087653326
48.24586160024632
37.485505720086174
53.014564876093246
47.491959700042386
67.8034464083705
33.381856192305165
52.14280065607549
40.981818235440514
43.311156450600784
45.008251667567436
45.47213436942261
46.56713972290721
47.369009910898825
46.549479299469745
48.651334577418694
48.97016492457586
50.346350689047824
50.268756799894085
50.43987628041046
52.112178150901386
52.71040702943431
49.201618711585695
50.17489824559634
51.24876245133228
50.55643646326629
54.2131522428748
55.548177613413365
53.24443298185901
55.07301734349041
49.33556571130953
48.41182080196565
50.95493696955252
51.94650417481631
48.70672430676061
47.88814659414271
53.877352758773846
51.58027314740814
52.36805838738323
40.99023196343027
37.82679182298377
42.1900994075524
40.16436658955737
44.453074379734886
47.699459355904054
47.8898923659677
50.92086496678131
54.53790682685129
48.26239252709392
46.21949847710721
53.753812301055774
51.70383019078105
56.610082062608285
50.38272496696895
50.085624710290816
45.081733103420135
62.57768475482219
62.17720905308628
59.13327603777502
48.874211405622795
47.01981896721395
51.61836979265185
47.979145023221214
47.353284924162764
47.0574966719916
47.70655794389277
52.48599235361334
52.981021427763764
44.00422881040696
45.54982660199843
67.6212502736457
57.59070267571895
47.85644251057092
32.244886750506005
52.509988484920584
53.59154193427779
56.45004077867343
52.140108435293705
50.81711402603599
56.53201766661881
38.645876706780044
53.92105111045331
55.18204887690957
53.0535030706992
56.92890367090024
48.24598970519333
47.91109029507583
49.32481634995499
58.25209847522764
47.672419245502475
74.2745333361526
25.737505620583658
52.32901020705636
52.61680478975623
