# vtk DataFile Version 2.0
HiResButterfly
ASCII
DATASET UNSTRUCTURED_GRID
POINTS 937 float
0.0 10.0 0.0
1.1 9.5 0.0
1.3 8.9 0.0
1.1 8.6 0.0
1.0 8.0 0.0
1.3 7.5 0.0
1.3 7.1 0.0
1.5 6.8 0.0
1.6 6.3 0.0
1.9 6.1 0.0
3.6 5.5 0.0
2.2 4.5 0.0
1.8 1.4 0.0
3.1 1.1 0.0
3.6 1.3 0.0
3.7 2.1 0.0
4.1 2.8 0.0
4.6 3.1 0.0
5.0 1.9 0.0
4.8 5.2 0.0
4.6 6.0 0.0
4.8 6.2 0.0
1.0 2.9 0.0
4.7 6.5 0.0
5.0 6.6 0.0
5.3 6.5 0.0
4.2 8.4 0.0
5.7 8.4 0.0
4.1 8.3 0.0
5.8 8.3 0.0
5.2 6.2 0.0
5.4 6.0 0.0
5.2 5.2 0.0
5.4 3.1 0.0
5.9 2.8 0.0
6.4 2.0 0.0
6.5 1.2 0.0
7.0 1.0 0.0
8.2 1.3 0.0
8.9 2.9 0.0
7.8 4.4 0.0
6.4 5.5 0.0
8.2 6.1 0.0
8.5 6.3 0.0
8.6 6.8 0.0
8.8 7.1 0.0
8.8 7.5 0.0
9.1 8.0 0.0
9.0 8.5 0.0
8.8 8.8 0.0
9.0 9.5 0.0
10.0 10.0 0.0
1.8 10.0 0.0
2.5 9.2 0.0
3.8 7.9 0.0
8.2 10.0 0.0
7.5 9.2 0.0
6.1 7.9 0.0
0.2199999999995982 9.900000000000183 0.0
0.4399999999990206 9.800000000000445 0.0
0.6599999999990105 9.70000000000045 0.0
0.8799999999994871 9.600000000000232 0.0
1.166666666666563 9.300000000000312 0.0
1.233333333333708 9.099999999998877 0.0
1.200000000000267 8.7500000000004 0.0
1.066666666667098 8.40000000000259 0.0
1.033333333333696 8.200000000002177 0.0
1.150000000000011 7.74999999999998 0.0
1.3 7.30000000000052 0.0
1.400000000000214 6.94999999999968 0.0
1.549999999999995 6.550000000000026 0.0
1.74999999999949 6.20000000000034 0.0
2.1833333333332 6.000000000000047 0.0
2.466666666665428 5.900000000000437 0.0
2.749999999997478 5.80000000000089 0.0
3.033333333331808 5.700000000000538 0.0
3.316666666665681 5.600000000000348 0.0
3.366666666667069 5.333333333333621 0.0
3.133333333334464 5.166666666667473 0.0
2.900000000001551 5.000000000001108 0.0
2.666666666667681 4.833333333334058 0.0
2.43333333333387 4.66666666666705 0.0
2.028571428571382 4.271428571428509 0.0
1.857142857143962 4.042857142858616 0.0
1.68571428571593 3.814285714287906 0.0
1.514285714287334 3.585714285716446 0.0
1.342857142858181 3.357142857144241 0.0
1.17142857142914 3.128571428572187 0.0
1.133333333333268 2.650000000000122 0.0
1.266666666666498 2.400000000000317 0.0
1.399999999999757 2.150000000000457 0.0
1.533333333333168 1.900000000000311 0.0
1.666666666666591 1.650000000000141 0.0
2.059999999999642 1.340000000000083 0.0
2.319999999999073 1.280000000000214 0.0
2.579999999999209 1.220000000000183 0.0
2.83999999999957 1.160000000000099 0.0
3.349999999999731 1.199999999999892 0.0
3.633333333333244 1.566666666665951 0.0
3.666666666666567 1.833333333332532 0.0
3.833333333332977 2.33333333333271 0.0
3.966666666666168 2.566666666665794 0.0
4.35 2.95 0.0
4.679999999999887 2.860000000000338 0.0
4.759999999999592 2.620000000001223 0.0
4.839999999999434 2.380000000001696 0.0
4.919999999999733 2.140000000000801 0.0
5.079999999999867 2.139999999999599 0.0
5.159999999999551 2.379999999998652 0.0
5.239999999999372 2.619999999998116 0.0
5.319999999999649 2.859999999998949 0.0
4.624999999999937 3.36249999999934 0.0
4.649999999999861 3.624999999998544 0.0
4.674999999999784 3.887499999997733 0.0
4.699999999999665 4.14999999999649 0.0
4.724999999999703 4.412499999996882 0.0
4.749999999999838 4.674999999998307 0.0
4.774999999999959 4.937499999999575 0.0
5.225000000000003 4.937499999999967 0.0
5.249999999999887 4.675000000001187 0.0
5.274999999999785 4.412500000002252 0.0
5.299999999999669 4.150000000003487 0.0
5.324999999999739 3.887500000002747 0.0
5.349999999999818 3.62500000000192 0.0
5.374999999999912 3.362500000000925 0.0
4.733333333333323 5.466666666666708 0.0
4.666666666666411 5.733333333334355 0.0
4.750000000000364 6.349999999998907 0.0
4.849999999998907 6.549999999999636 0.0
5.150000000001093 6.549999999999636 0.0
5.249999999999636 6.349999999998907 0.0
5.000000000000346 6.2 0.0
5.333333333333963 5.73333333333585 0.0
5.266666666667391 5.466666666669563 0.0
4.314285714285334 8.142857142857999 0.0
4.428571428570912 7.885714285715448 0.0
4.542857142856376 7.628571428573154 0.0
4.657142857141921 7.371428571430678 0.0
4.771428571428144 7.114285714286676 0.0
4.885714285714409 6.857142857142581 0.0
4.871428571428825 6.842857142856663 0.0
4.742857142857832 7.085714285712984 0.0
4.614285714287253 7.328571428568521 0.0
4.485714285715694 7.571428571425912 0.0
4.357142857144253 7.814285714283078 0.0
4.228571428572303 8.057142857141207 0.0
5.099999999999654 6.857142857141967 0.0
5.199999999999164 7.114285714283565 0.0
5.299999999998678 7.371428571425173 0.0
5.399999999998215 7.628571428566838 0.0
5.499999999998513 7.885714285710462 0.0
5.599999999999092 8.142857142854808 0.0
5.685714285714554 8.057142857143427 0.0
5.571428571428564 7.8142857142857 0.0
5.457142857143391 7.571428571429706 0.0
5.342857142857416 7.328571428572009 0.0
5.228571428571763 7.085714285714996 0.0
5.114285714285732 6.84285714285718 0.0
0.2999999999993915 10.0 0.0
0.5999999999985198 10.0 0.0
0.8999999999976468 10.0 0.0
1.199999999998431 10.0 0.0
1.499999999999208 10.0 0.0
1.974999999999482 9.800000000000592 0.0
2.149999999998469 9.60000000000175 0.0
2.324999999998453 9.400000000001768 0.0
2.685714285713505 9.014285714286494 0.0
2.871428571426948 8.828571428573051 0.0
3.057142857140602 8.642857142859398 0.0
3.242857142855235 8.457142857144765 0.0
3.428571428570196 8.271428571429805 0.0
3.614285714285441 8.085714285714559 0.0
3.914285714285624 7.628571428571644 0.0
4.028571428571138 7.357142857143548 0.0
4.142857142856466 7.085714285715893 0.0
4.25714285714243 6.814285714286729 0.0
4.371428571428739 6.542857142856743 0.0
4.485714285714494 6.271428571428078 0.0
5.499999999999902 6.271428571428306 0.0
5.599999999999691 6.542857142856305 0.0
5.699999999999256 6.814285714283693 0.0
5.799999999999341 7.085714285712497 0.0
5.89999999999988 7.357142857142532 0.0
6.000000000000113 7.628571428571735 0.0
6.299999999999434 8.08571428571376 0.0
6.499999999998554 8.27142857142723 0.0
6.699999999998794 8.457142857141736 0.0
6.899999999998121 8.642857142855398 0.0
7.09999999999794 8.828571428569516 0.0
7.299999999998319 9.014285714284153 0.0
7.674999999999989 9.399999999999988 0.0
7.849999999999484 9.59999999999941 0.0
8.02499999999928 9.799999999999176 0.0
8.49999999999919 10.0 0.0
8.799999999998727 10.0 0.0
9.099999999997916 10.0 0.0
9.399999999999883 10.0 0.0
9.70000000000081 10.0 0.0
9.75 9.875 0.0
9.500000000000002 9.75 0.0
9.250000000000002 9.625 0.0
8.93333333333339 9.266666666666865 0.0
8.86666666666661 9.033333333333136 0.0
8.9 8.65 0.0
9.049999999999986 8.250000000000068 0.0
8.950000000000184 7.750000000000306 0.0
8.8 7.30000000000052 0.0
8.69999999999984 6.949999999999759 0.0
8.55 6.55 0.0
8.35000000000024 6.20000000000016 0.0
7.942857142857574 6.014285714285858 0.0
7.685714285715386 5.928571428571795 0.0
7.428571428573346 5.842857142857782 0.0
7.171428571430013 5.757142857143338 0.0
6.914285714287126 5.671428571429042 0.0
6.657142857143199 5.5857142857144 0.0
6.633333333332899 5.316666666667008 0.0
6.866666666665325 5.133333333334387 0.0
7.099999999997847 4.950000000001692 0.0
7.33333333333215 4.766666666667597 0.0
7.566666666666737 4.583333333333278 0.0
7.957142857140773 4.185714285717128 0.0
8.11428571428217 3.971428571433406 0.0
8.271428571424861 3.757142857147916 0.0
8.428571428568079 3.542857142861711 0.0
8.585714285712163 3.328571428574325 0.0
8.742857142855865 3.114285714287458 0.0
8.78333333333364 2.633333333334037 0.0
8.666666666667282 2.366666666668074 0.0
8.55000000000098 2.100000000002238 0.0
8.433333333333916 1.833333333334668 0.0
8.316666666666784 1.566666666666933 0.0
7.959999999999793 1.239999999999948 0.0
7.720000000001337 1.180000000000334 0.0
7.480000000000619 1.120000000000155 0.0
7.240000000001028 1.060000000000257 0.0
6.750000000000269 1.099999999999892 0.0
6.466666666666758 1.466666666665933 0.0
6.433333333333423 1.733333333332615 0.0
6.275000000000312 2.199999999999501 0.0
6.150000000000312 2.399999999999502 0.0
6.025000000000156 2.599999999999751 0.0
5.65 2.95 0.0
3.366705796160079 8.005945910079264 0.0
1.475348584807306 7.396324189030302 0.0
3.565781565172447 2.33134810196151 0.0
1.382961288753077 8.738530582463794 0.0
4.419382725546916 3.7565270018575 0.0
2.114922155231421 3.991635278426783 0.0
2.801509914229869 8.589120576979855 0.0
2.427419350873709 6.192082341958231 0.0
1.687180731360892 2.13615225520928 0.0
2.922345954878022 4.721236674197722 0.0
2.491420840888419 1.476087740490532 0.0
3.850650247544535 7.122454239568974 0.0
4.518104579599336 4.574330166083452 0.0
1.621758198407315 3.317531226511738 0.0
1.223205080756342 8.271132486543053 0.0
3.265934683646613 5.88200067641268 0.0
1.488683969580445 8.891299510890777 0.0
1.574930291226311 8.715810516833754 0.0
1.698226821526592 6.683228500390029 0.0
3.385091853152506 5.047231564328409 0.0
3.830777199934241 2.79882848718221 0.0
2.455946877946167 8.93943252347418 0.0
4.539862996786765 5.067977627926488 0.0
1.375148934763655 9.270681828235828 0.0
3.425085485659062 1.676591014267623 0.0
4.079221676115225 6.579597096710532 0.0
1.686295921026735 8.884423971562002 0.0
1.778212264329322 8.700260068883289 0.0
1.911602540378189 6.279903810567834 0.0
1.392623154696721 7.745581184371553 0.0
4.302757939405609 6.101028461441127 0.0
1.659228225352035 8.527298153945196 0.0
1.871141067726253 8.509525346039656 0.0
1.747420123911906 8.331577140284466 0.0
1.965467184083454 8.313415152086003 0.0
1.842488538385248 8.133518651049277 0.0
2.060622568040626 8.113826437215709 0.0
1.936861467213403 7.933021709660719 0.0
2.15602039531017 7.91329955114773 0.0
2.029155040814267 7.729899911511695 0.0
2.2518836226416 7.711387568846734 0.0
2.123387531259327 7.525847957843724 0.0
2.349256156730737 7.507169156187687 0.0
2.215177078408382 7.316688564086753 0.0
2.449682012871851 7.299062724536484 0.0
2.479491160483086 7.695782643015054 0.0
2.310392484393033 7.102187773365855 0.0
2.553909384598078 7.083894802972758 0.0
2.69109069602837 7.287348954819717 0.0
2.801338979647873 7.06380949602622 0.0
2.94318953905031 7.277123382636321 0.0
3.057395272824816 7.043482206098063 0.0
2.909975535753322 6.82682826224091 0.0
3.176152231793824 6.803000027679418 0.0
[...]
POINT_DATA 937
SCALARS point_scalars float
LOOKUP_TABLE default
100.0
19.93379270836563
10.623033889823429
9.05355320485519
9.166990280039693
11.006827334807868
13.299452061752653
15.563977662241703
18.665957603434137
20.38083024110197
49.45551676156966
41.40955250602806
100.0
48.863949057910695
46.86716599530371
43.420707666890216
54.603626819279384
88.41312556101893
100.0
59.9065043825084
73.32231494800146
72.89458190369245
42.807092866179275
0.0
10363760212692.61
0.0
10363760212692.703
10363760212692.8
10363760212692.703
10363760212692.799
-6.369483948105995
-125.47876747680962
111.80051954246596
178.11165390530113
79.43249374739783
53.534936268814356
55.27001700289158
56.812390591511765
100.0
42.670080373167416
40.81952289184077
19.175201634492037
-1.6707252364108205
-1.3662785627488152
-0.6650475644854428
0.026198008717033008
1.023274020823939
2.686328444441208
4.210717345770726
6.69384405962677
18.099948210846286
100.0
15.661102845425875
8.443099404663394
17.272627991543857
12.497569902239396
4.746390056158552
-5.357737438004731
59.88317030710857
42.82690396599035
33.23170790464427
26.097024614753966
15.84574125125466
13.074575568780597
9.447592058339742
8.909121917427084
8.983294619062733
9.686564502471702
12.307373042835573
14.194667597453124
17.463571431279355
19.41173190408297
22.696979812154613
25.959020235148866
30.111629360812575
35.144335978640335
41.23490273390329
50.9296732504317
49.765430593318754
47.80085080665585
45.51560542387531
43.251841017349406
39.89944564203029
38.78700752033542
38.48008880171676
39.09144246537512
40.39147476876271
41.876398359812384
43.87883290775562
46.33138769492929
50.41155885295463
57.1014338863658
68.88474800335793
70.83115405081625
59.64567980479926
53.82932807389269
50.52429776810839
47.64523392746091
46.11632679356046
44.739836456812405
43.96100197390348
47.22118197139167
67.91163306204062
102.2237400600199
102.92991435269764
101.02274319631705
100.84556281764522
100.84698587705456
101.64010786539222
108.4629461798915
127.21663203977643
86.41994660952598
81.05139044964533
73.96920015300914
64.27003992261525
57.573568234128054
63.74225689293139
58.48825964359018
-332.9303183650874
553.1359117484171
-617.0245638049025
549.1722118295528
-30.898210746804924
132.44771574415648
101.19444921473325
76.10734235685113
76.35688211550418
-5888172676110.4
5743433971138.276
-68678487878250.49
65970697666560.0
37.84979515482824
-210.9634888392002
532.8166429896786
10363760212692.705
10363760212692.7
10363760212692.674
10363760212692.648
10363760212692.543
10363760212692.467
10363760212692.465
10363760212692.537
10363760212692.643
10363760212692.672
10363760212692.7
10363760212692.705
10363760212692.926
10363760212692.922
10363760212692.865
10363760212692.82
10363760212692.787
10363760212692.797
10363760212692.799
10363760212692.791
10363760212692.824
10363760212692.87
10363760212692.926
10363760212692.924
52.92504728633229
37.488933731741696
27.958184937665436
21.64271512561592
17.754694414596585
14.131386349317067
12.099479268449324
10.116310382465043
7.505587216387091
7.440241725184062
8.1286689741634
9.514161679557107
11.643333442509475
14.461399324436856
20.933511776292935
25.701811693820446
31.255506444660337
37.65255447378146
45.243684885652215
55.32227650327312
-52.44430925332748
-30.370133574358576
-19.679505612055202
-13.72091704130042
-9.829098971297132
-7.098448782863514
-3.9641275771103146
-2.5107356822090874
-1.1773407204241153
0.06844657561081835
1.3685965756207958
2.8903563537770878
6.807512134893997
8.919051248639377
10.954039609927214
14.531263773610267
18.479018099929956
24.721308061734195
34.51617112258788
50.64083761347927
52.923225775733926
36.474827517081565
26.18138235299096
13.155128708335914
9.77379376978495
5.053651289159499
3.323576039791756
2.014235549324583
0.405128054225743
-0.27198471215078984
-1.1194907439327941
-1.5061094344287895
-1.9528205821787394
-2.213298563358235
-2.2788088909459607
-1.819409542089527
-0.12976342247595538
4.558868279774338
35.74455754674704
41.02552632186348
43.16307479588841
43.2799045597048
42.23439706319106
39.5152411315097
38.41440705142591
38.05410030423673
38.658866319743474
40.000345243368585
41.59092163858272
44.11553244704127
47.16426102556485
51.89600887471818
58.92712805226316
70.35481160585238
74.6828225426329
65.25667497782955
60.56084893904563
58.02321549299338
55.852748816342235
54.73623829363684
53.90691652517484
55.23285406100758
59.25283396505887
66.46966304492275
107.32815718405514
12.943838612021906
11.80363493147281
42.52920164942151
9.479384149998133
70.19554741339981
38.89920023378037
7.431438860469958
24.07587352734822
52.25978886960342
46.72146114907816
55.34574988754821
28.105509807304774
60.22181878848137
39.53434888888459
8.8456988828854
37.81507425300425
10.219441935645262
8.772759195032378
16.896774043392174
50.83277552902929
48.3146322693386
7.489761560469202
60.64574932861008
14.297240079514916
45.84222595612122
40.70365470285294
9.349171166332118
7.494301018704311
19.840868376138992
9.938799519064402
56.32599075397897
7.549052250324504
5.427243241369462
6.895356362796402
5.040196581902756
7.171326538039337
6.458969146361434
8.053751641658778
7.520571287850732
9.146326553382243
8.482155998096113
10.57196098475795
10.118898162066998
12.601347067108497
12.9169951284223
6.7457912753329
15.181721255806556
16.35723123355987
13.861116049676841
18.28107318097437
16.131531068296958
20.972757376038313
22.532759470160407
25.64636994888201
6.186274521736884
44.407063319035196
54.62537997863062
46.942460085591584
52.81275065178656
44.82522311286408
50.5729033094775
43.490550400136996
36.41251804974873
48.766917669534976
43.35868447864333
47.768702737689246
52.4622585040194
43.86265396547712
39.21730611618252
50.87632674382576
67.22468710891579
54.78828437986239
14.66822652567069
41.179235767708676
37.10019512909179
19.305667636662527
26.97345193022626
30.69505899546358
12.402357840604424
18.06580878020428
0.0
10.980227759394715
53.125872124784614
8.17468676953355
14.364544437138902
48.92670400561657
18.65273950185763
16.75868010003593
32.88667663662531
32.90502161687894
24.600638584254057
30.978030393678363
24.534221542875066
33.30453371164407
32.96008271485924
25.704409927136467
36.099242276602055
38.11012301079397
34.068361190658074
40.60651499740242
43.070961673851656
39.67410335051993
44.07239500658518
26.191718218021062
35.104432382218725
56.18388279382827
54.5131522517996
58.64061657539807
42.19035322623097
61.924611717545574
42.10904934089803
8.057838654255821
49.950709986006466
23.71493670979132
27.825527431889114
19.233970845470346
9.442271424494216
37.786884935157396
41.219975698007
43.30631823988338
10.560252155621633
29.198480193835064
34.63632669915403
44.54591869107733
57.08025098284764
55.70108254421095
39.545475830815576
42.896744185797424
46.168639229581395
48.31665851464595
15.613758999086922
35.67837046928621
40.509691035453464
69.99717184139651
45.09973272258354
17.85452738348432
15.776024525523948
20.116849431418675
9.289917007075163
9.181293524317804
7.403770176233355
58.72557474818649
57.37835798063856
54.17342153752528
55.540057855829716
32.985679774425236
40.49431260586386
17.449040288890703
22.183678412955615
13.253022324496401
9.094343683696934
13.315456219139353
14.781284954274847
17.604549973456127
18.463363293979796
61.391471227463285
57.53781902839074
52.82407176398041
47.27941178967335
9.031053181309247
23.516385503257027
12.21741852475573
40.853295020808424
46.64368919754513
46.2537652174889
10.372260657912452
7.102328959576816
8.761262975596928
7.074965503939153
5.351683492252448
73.81150699358123
12.903460642370007
12.520868100389816
11.202642857257366
59.76997773740739
52.26835990540022
10.15634765130052
14.455384391259315
13.67293652721046
43.16129164207814
40.62938539594738
7.086937417847465
6.479452538027804
6.329906531610671
22.9651584059942
10.651780151337745
0.0
8.667509155145607
8.018381413741475
59.09340801283575
62.08629107586958
62.670539967981234
57.554416686391995
62.052102924719385
67.44540331087916
54.9801676487479
38.04120113241775
38.37852319927884
41.283250500210556
38.138625244002796
49.014474116788726
50.56534602106407
52.85237648594645
58.33511878443444
44.31161747718742
27.56662798266392
32.36566412187424
42.59533195862515
49.17624721142893
0.0
27.04070529575313
34.932470621632525
26.52256109292073
31.62296112845508
46.2848302936007
39.869937701268
49.69814516225358
44.058453863161944
8.62036791771889
36.71625431210256
60.190596480855156
35.38607955180943
38.71181433921291
37.002096320459806
16.902735064009804
47.328773913331325
8.872582928238135
4.8413176627948635
6.011953717604686
48.23211163661132
47.16343365913955
52.62919739061866
21.76195231228133
60.66287986496878
11.211808585478948
6.73710845985049
9.182445282082465
19.887334129671125
5.660825242728393
24.150413199163406
39.957111571575005
35.75800455976743
8.361071056257716
8.574695949463504
42.72253462987486
4.684297995962875
47.70543358769455
8.722776360875164
9.908265073309792
64.6660797045339
42.78504537062084
21.004408592967657
27.359276060797054
34.091838942117526
48.26685933450342
45.48996743862289
46.037202072152205
51.40546575394377
24.379116992732076
12.098423330440268
21.169228495913746
16.303352769620695
10.366849928337144
38.97234239023165
66.90426598629175
60.43902579081583
12.824163298003374
40.36688240467789
51.92034774073472
37.002990072088075
11.869406068740641
13.755836231488207
54.084768159866286
48.77789771821501
59.01442473171596
37.37173457742506
10.777600544166614
64.85586738292935
5.19987670168357
46.36771085935968
19.021440196003716
7.057968170634638
9.021453600383836
15.008023758973662
59.18269722574968
21.95305817647192
38.952840657885154
51.397595241350416
10.73662397519759
17.802576113188664
44.62268891615554
28.93449974949052
52.28892248885691
9.112363343716718
46.859559826683764
51.49009083709189
19.626767219485252
6.14131457218665
60.49563875495733
62.59986027471883
40.74237634029935
16.494869460763212
8.600523286222176
76.30196884797482
42.940377771586064
20.223813410589887
20.257129008965208
35.64732002106274
52.465709278360755
46.742681362098075
15.96391901988245
6.928106052875556
13.788580054377647
47.75011107615772
15.726279863859636
24.5374900702651
10.48959530118349
42.4688133553592
5.346298282654352
-1.6981141452102637
53.386956739027454
68.98432341828989
0.5799189675930287
-2.079221160475412
37.80930059398051
80.39538725942467
43.140832458762404
48.616593293353915
1.975565284395228
-11.057479947179843
61.52050247741491
-1.8762714651994516
40.09580342073199
6.5340605544147214
5.071686698960118
-0.9928293687357101
-5.648474663878298
-21.900883499631906
39.11694011902376
6.014205169533937
4.504431315156892
19.983334846061386
3.797440590369058
3.126908310295679
2.6844145518074343
1.960753121486376
61.57909772103978
4.09817143128171
54.56269308354115
10.14946623995648
5.2474702885321385
1.7593883570932214
1.1134425375054238
-1.5907545935680574
-4.815358647187695
0.9889814175085202
0.5083110286504078
0.47333891834908304
0.017848693149427313
-0.1066351014342637
-0.4883296346313497
-0.696157368859555
-1.12130692138616
-1.3251241195600643
-1.9374988026717486
-1.6046834005829531
-2.870192326172391
0.06393055952301356
-2.7688870652383475
-3.9383682006270115
-4.316663631157788
-5.655578400572499
-0.8563865281739298
-1.4029969152735702
9.461045742374425
-3.3938786303056254
27.717913631616586
-0.4119085650907217
10.678699944277167
40.23541323875122
0.2943250836307461
79.67672423847799
67.30706681229539
75.22498840869437
63.14138991059764
56.50152827162719
52.260125252258206
45.578364833262825
58.67697758122207
41.138650698705504
31.050885801047844
28.786443975399393
0.0
29.97853368458183
27.658353347978817
37.926394235002675
40.25907754695693
38.35738862290912
44.30988661936497
25.612050809713413
34.661155271397696
41.21916158022248
45.135548513101455
49.65510971633256
49.18897132073054
41.06634711293023
1.1184966627345478
-4.180774738656388
6.985604981576839
5.9756665976085594
4.241056449282097
2.3001205279919357
50.98951416374515
75.53435380133114
56.869172510294135
53.49919898777081
-6.364356255199977
-4.518749364908922
-8.21434573051933
-6.656569774301971
-9.826595692412278
-8.240994092019966
-6.730785080291553
-0.9730440003467368
-1.4942561450921235
-0.3931006818574185
41.443853248092985
52.5292566157769
49.60815319271509
38.13051979564895
33.89523786372758
-2.5217528326345118
46.92132177461784
45.4688904378957
50.82920953340851
47.738841091240005
52.37074266267282
48.10407907225329
51.04018399255048
58.01183482286169
54.36912114728347
65.22445410725263
66.84226067287524
48.199269149166156
-4.781338816958586
-2.844933956822117
49.279476738213745
46.002203403775944
3.756169505825289
0.6390087857926332
0.18099496897660888
55.01996259722853
-6.522092221257563
4.9468378184968955
55.68891098748233
15.549972760282836
49.07273799771745
52.84619563935452
-18.151114095695856
3.2086940572265297
1.1507974752536096
6.845428553576448
90.21641121486358
81.56326976629386
47.315802190669835
43.717171217241805
38.654465815813836
41.14603200939293
-4.557336027468496
-2.6756638869973597
-3.0070693089797693
-1.4897581796090384
2.3741003824583897
1.573761910693166
-11.692444251443469
98.17736874507071
37.36345199595757
45.83187044295831
35.42827262315315
1.7217049067900514
39.38753269839385
54.41060417489258
-0.6024185698133072
37.86475089356308
73.2499529129553
-2.270210577625095
-59.96614183791972
78.13824739510028
75.04184781316975
-10.971153478059344
44.127566808217445
-4.7538743539192785
-6.172875608141527
-1.3291260799246312
-1.5100831511176036
-1.7816545368357808
0.15134481435072328
55.57671674255935
-1.7135359293374786
3.6634813339199943
50.928482181945284
51.64786250003004
12.677118933393563
11.205189596841477
61.9015045179702
-1.070910556808071
8.944238673075375
-0.27984515567755736
0.0
-0.5915695085797271
-0.8544068429558782
9.326475772766667
2.4009279009146014
3.181971479666215
0.147023574849524
54.1858978318483
54.31376500784459
58.92961460222574
-3.559773406594502
39.63603057466415
1.0084592444306537
57.9214093294511
63.879001733542566
42.614534158735545
44.819595367755454
0.6302402064872651
-0.5227016652392505
-0.1317729096410329
-2.3838358586867634
-33.17358560858896
-2.40008085737389
1.0253468389003813
0.276883764855744
-15.489002138624897
43.992886918591445
43.18641981660656
45.51293024547755
34.0219537301414
53.67012899632171
-3.1639030380228315
23.43764743813904
-17.910388563307386
37.96538794147112
59.97350495468727
52.63757070510219
58.561404674435344
44.97487497090338
41.086356133617194
-0.13865842763683295
40.867694536209385
14.784042253185737
55.8867945619287
45.70463007557856
87.99428558353127
38.59247039266313
41.71961948689408
25.798923035240502
20.636637321174444
60.95865265550513
66.07327348559974
-1.9361939978906388
48.9893253763435
-2.662699266989164
-4.67988305068889
-15.203427407233223
41.66659272911419
54.57114860922201
34.26493177900117
-9.178027526926844
52.77433752159367
51.82393754621704
-1.9840644821056994
-0.6958798072126379
0.40997011230155106
-3.631318960363177
69.64988769493226
4.261692322298918
-0.3272839769196202
45.33025140039669
75.1695629189384
115.3090825072884
7.945886993204636
31.539306636931236
-3.1889221009759834
-0.25000146416834157
3.6084200187400914
5.628596922797273
56.25044538851441
35.540578937713136
54.56442934551374
47.6679108163936
-1.8663004814225082
0.5558858577059826
43.27365381432591
86.97593521153672
8.125956526871478
140.23195324056795
47.30903555489981
50.290206800608075
-2.8124562794832837
8.297553013619188
43.77427849635743
2.0747999082712005
-8.029471849671877
87.93386967822335
-0.2585691863146774
-0.6948634999904291
-1.2572401671246338
-0.19697262225842346
-19.05292525409045
0.0
1.71616020068233
58.29781360046445
49.3574140891533
45.2502008204438
32.626475401498936
101.45622805766196
4.534902451338566
-2.387127289906279
-1.7827717863858972
-2.0277236053444088
11.861069943270689
2.284290040770525
45.0092648432395
3.020683606560749
-1.008333701514514
7.6086878568111
42.16159625223443
-1.4169039621583392
39.78878345320961
42.520994114817555
41.561431677968365
-4.335636000167792
53.646786256039995
-84.5885211677257
-6.213859490242416
190.18692159873135
28.55237736983343
1.6615526292769156
37.77388471087637
2.3578700955855285
0.6620836414874809
54.67233247293221
92.60274118173656
36.940262812835265
41.72954695358785
55.209220730642656
13.30553537786508
-0.15497621677114545
-10.692506555816234
-8.129976905726624
94.15438888273864
39.088541644168515
37.21320886862445
56.29206426430613
-28.909876069394702
0.07552926910659781
-1.9180309650895466
99.93261230690764
-34.925719368986655
0.1981163535155607
13.115078297570298
5629499534215.133
97.99753455688547
83.38753177119482
1.990940783122001
106.85669379246148
116.95814018184684
104.44518096986158
51.698383715575886
120.77796331612267
100.0
100.0
40.35651775935297
100.0
100.0
100.0
100.0
12.804071448355081
101.0419613548924
75.40900058958192
76.1444398294263
103.88041821286882
109.71099881193642
113.01966422289115
84.90344179441551
-21.483913804222674
11.908481018897023
123.35134529507623
100.0
-34.93000000233323
0.0015748569491407663
13.103004265139747
5629499534215.755
