# vtk DataFile Version 2.0
LoResSquare
ASCII
DATASET UNSTRUCTURED_GRID
POINTS 5 float
0.0 0.0 0.0
0.0 1.0 0.0
1.0 1.0 0.0
1.0 0.0 0.0
0.5 0.5 0.0
CELLS 4 16
3 1 0 4
3 0 3 4
3 2 1 4
3 3 2 4
CELL_TYPES 4
5
5
5
5
POINT_DATA 5
SCALARS point_scalars float
LOOKUP_TABLE default
0.0
50.0
50.0
100.0
50.0
